Title: *** SPICE deck for cell Multiplier_Unit{lay} from library Project
Date: Sat Dec 27 00:42:54 2025
Plotname: Operating Point
Flags: real
No. Variables: 1170
No. Points:            1
Offset:   0.0000000000000000e+000
Command: Linear Technology Corporation LTspice IV
Variables:
	0	V(net@46)	voltage
	1	V(vdd)	voltage
	2	V(en)	voltage
	3	V(a[2])	voltage
	4	V(net@216)	voltage
	5	V(a[1])	voltage
	6	V(net@560)	voltage
	7	V(a[4])	voltage
	8	V(net@563)	voltage
	9	V(a[3])	voltage
	10	V(net@1473)	voltage
	11	V(a[6])	voltage
	12	V(net@2064)	voltage
	13	V(a[5])	voltage
	14	V(net@1511)	voltage
	15	V(a[7])	voltage
	16	V(net@340)	voltage
	17	V(b[5])	voltage
	18	V(net@335)	voltage
	19	V(b[4])	voltage
	20	V(net@317)	voltage
	21	V(b[1])	voltage
	22	V(net@350)	voltage
	23	V(b[7])	voltage
	24	V(net@345)	voltage
	25	V(b[6])	voltage
	26	V(net@328)	voltage
	27	V(b[3])	voltage
	28	V(net@323)	voltage
	29	V(b[2])	voltage
	30	V(net@2954)	voltage
	31	V(a[0])	voltage
	32	V(net@353)	voltage
	33	V(b[0])	voltage
	34	V(m[0])	voltage
	35	V(net@367)	voltage
	36	V(net@369)	voltage
	37	V(net@2912)	voltage
	38	V(net@2913)	voltage
	39	V(net@688)	voltage
	40	V(net@689)	voltage
	41	V(net@917)	voltage
	42	V(net@921)	voltage
	43	V(net@2191)	voltage
	44	V(net@2192)	voltage
	45	V(net@2332)	voltage
	46	V(net@2337)	voltage
	47	V(net@3125)	voltage
	48	V(net@3131)	voltage
	49	V(net@389)	voltage
	50	V(net@64)	voltage
	51	V(net@414)	voltage
	52	V(net@102)	voltage
	53	V(net@444)	voltage
	54	V(net@128)	voltage
	55	V(net@475)	voltage
	56	V(net@113)	voltage
	57	V(net@505)	voltage
	58	V(net@149)	voltage
	59	V(net@539)	voltage
	60	V(net@189)	voltage
	61	V(net@2879)	voltage
	62	V(net@300)	voltage
	63	V(net@2850)	voltage
	64	V(net@209)	voltage
	65	V(net@2814)	voltage
	66	V(net@233)	voltage
	67	V(net@2745)	voltage
	68	V(net@219)	voltage
	69	V(net@2705)	voltage
	70	V(net@253)	voltage
	71	V(net@2668)	voltage
	72	V(net@269)	voltage
	73	V(net@705)	voltage
	74	V(net@708)	voltage
	75	V(net@725)	voltage
	76	V(net@672)	voltage
	77	V(net@743)	voltage
	78	V(net@739)	voltage
	79	V(net@764)	voltage
	80	V(net@584)	voltage
	81	V(net@786)	voltage
	82	V(net@785)	voltage
	83	V(net@805)	voltage
	84	V(net@804)	voltage
	85	V(net@939)	voltage
	86	V(net@641)	voltage
	87	V(net@962)	voltage
	88	V(net@880)	voltage
	89	V(net@991)	voltage
	90	V(net@566)	voltage
	91	V(net@1015)	voltage
	92	V(net@891)	voltage
	93	V(net@1040)	voltage
	94	V(net@588)	voltage
	95	V(net@1070)	voltage
	96	V(net@605)	voltage
	97	V(net@2207)	voltage
	98	V(net@1588)	voltage
	99	V(net@2225)	voltage
	100	V(net@1934)	voltage
	101	V(net@2241)	voltage
	102	V(net@2004)	voltage
	103	V(net@2260)	voltage
	104	V(net@1990)	voltage
	105	V(net@1475)	voltage
	106	V(net@1474)	voltage
	107	V(net@1493)	voltage
	108	V(net@1492)	voltage
	109	V(net@2351)	voltage
	110	V(net@2149)	voltage
	111	V(net@2373)	voltage
	112	V(net@2057)	voltage
	113	V(net@2395)	voltage
	114	V(net@2081)	voltage
	115	V(net@2421)	voltage
	116	V(net@2067)	voltage
	117	V(net@2447)	voltage
	118	V(net@2101)	voltage
	119	V(net@2469)	voltage
	120	V(net@2117)	voltage
	121	V(net@1877)	voltage
	122	V(net@1876)	voltage
	123	V(net@1893)	voltage
	124	V(net@1833)	voltage
	125	V(net@1913)	voltage
	126	V(net@1514)	voltage
	127	V(net@1931)	voltage
	128	V(net@1844)	voltage
	129	V(net@1951)	voltage
	130	V(net@1536)	voltage
	131	V(net@1969)	voltage
	132	V(net@1553)	voltage
	133	V(net@923)	voltage
	134	V(net@379)	voltage
	135	V(net@380)	voltage
	136	V(net@924)	voltage
	137	V(net@949)	voltage
	138	V(net@404)	voltage
	139	V(net@405)	voltage
	140	V(net@950)	voltage
	141	V(net@979)	voltage
	142	V(net@434)	voltage
	143	V(net@437)	voltage
	144	V(net@978)	voltage
	145	V(net@1002)	voltage
	146	V(net@460)	voltage
	147	V(net@463)	voltage
	148	V(net@1003)	voltage
	149	V(net@1027)	voltage
	150	V(net@492)	voltage
	151	V(net@493)	voltage
	152	V(net@1026)	voltage
	153	V(net@1053)	voltage
	154	V(net@516)	voltage
	155	V(net@519)	voltage
	156	V(net@1056)	voltage
	157	V(net@1083)	voltage
	158	V(net@552)	voltage
	159	V(m[9])	voltage
	160	V(net@553)	voltage
	161	V(net@1082)	voltage
	162	V(net@2900)	voltage
	163	V(net@2901)	voltage
	164	V(net@2869)	voltage
	165	V(net@2870)	voltage
	166	V(net@2837)	voltage
	167	V(net@2836)	voltage
	168	V(net@2777)	voltage
	169	V(net@2780)	voltage
	170	V(net@2746)	voltage
	171	V(net@2747)	voltage
	172	V(net@2691)	voltage
	173	V(net@2690)	voltage
	174	V(net@2656)	voltage
	175	V(m[8])	voltage
	176	V(net@2657)	voltage
	177	V(net@2339)	voltage
	178	V(net@696)	voltage
	179	V(net@698)	voltage
	180	V(net@2338)	voltage
	181	V(net@2361)	voltage
	182	V(net@716)	voltage
	183	V(net@718)	voltage
	184	V(net@2360)	voltage
	185	V(net@2383)	voltage
	186	V(net@734)	voltage
	187	V(net@735)	voltage
	188	V(net@2382)	voltage
	189	V(net@2409)	voltage
	190	V(net@753)	voltage
	191	V(net@754)	voltage
	192	V(net@2408)	voltage
	193	V(net@2435)	voltage
	194	V(net@774)	voltage
	195	V(net@775)	voltage
	196	V(net@2434)	voltage
	197	V(net@2457)	voltage
	198	V(net@794)	voltage
	199	V(net@796)	voltage
	200	V(net@2456)	voltage
	201	V(net@2477)	voltage
	202	V(net@813)	voltage
	203	V(m[11])	voltage
	204	V(net@814)	voltage
	205	V(net@2476)	voltage
	206	V(m[10])	voltage
	207	V(net@1866)	voltage
	208	V(net@2198)	voltage
	209	V(net@2200)	voltage
	210	V(net@1867)	voltage
	211	V(net@1883)	voltage
	212	V(net@2217)	voltage
	213	V(net@2218)	voltage
	214	V(net@1884)	voltage
	215	V(net@1903)	voltage
	216	V(net@2233)	voltage
	217	V(net@2234)	voltage
	218	V(net@1902)	voltage
	219	V(net@1921)	voltage
	220	V(net@2250)	voltage
	221	V(net@2251)	voltage
	222	V(net@1922)	voltage
	223	V(net@1940)	voltage
	224	V(net@2269)	voltage
	225	V(net@1471)	voltage
	226	V(net@1939)	voltage
	227	V(net@1959)	voltage
	228	V(net@1483)	voltage
	229	V(net@1484)	voltage
	230	V(net@1960)	voltage
	231	V(net@1979)	voltage
	232	V(net@1500)	voltage
	233	V(m[13])	voltage
	234	V(net@1501)	voltage
	235	V(net@1978)	voltage
	236	V(m[12])	voltage
	237	V(net@2512)	voltage
	238	V(net@2488)	voltage
	239	V(net@2489)	voltage
	240	V(net@2513)	voltage
	241	V(net@1687)	voltage
	242	V(net@1688)	voltage
	243	V(net@2553)	voltage
	244	V(net@2552)	voltage
	245	V(net@1727)	voltage
	246	V(net@1728)	voltage
	247	V(net@2595)	voltage
	248	V(net@2594)	voltage
	249	V(m[15])	voltage
	250	V(m[14])	voltage
	251	V(m[5])	voltage
	252	V(m[4])	voltage
	253	V(m[1])	voltage
	254	V(m[7])	voltage
	255	V(m[6])	voltage
	256	V(m[3])	voltage
	257	V(m[2])	voltage
	258	I(Vb7)	device_current
	259	I(Vb6)	device_current
	260	I(Vb5)	device_current
	261	I(Vb4)	device_current
	262	I(Vb3)	device_current
	263	I(Vb2)	device_current
	264	I(Vb1)	device_current
	265	I(Vb0)	device_current
	266	I(Va7)	device_current
	267	I(Va6)	device_current
	268	I(Va5)	device_current
	269	I(Va4)	device_current
	270	I(Va3)	device_current
	271	I(Va2)	device_current
	272	I(Va1)	device_current
	273	I(Va0)	device_current
	274	I(Ven)	device_current
	275	I(Vdd)	device_current
	276	Ix(and2_1ou@0:A)	subckt_current
	277	Ix(and2_1ou@0:B)	subckt_current
	278	Ix(and2_1ou@0:GND)	subckt_current
	279	Ix(and2_1ou@0:VDD)	subckt_current
	280	Ix(and2_1ou@0:Y)	subckt_current
	281	Ix(and2_1ou@1:A)	subckt_current
	282	Ix(and2_1ou@1:B)	subckt_current
	283	Ix(and2_1ou@1:GND)	subckt_current
	284	Ix(and2_1ou@1:VDD)	subckt_current
	285	Ix(and2_1ou@1:Y)	subckt_current
	286	Ix(and2_1ou@2:A)	subckt_current
	287	Ix(and2_1ou@2:B)	subckt_current
	288	Ix(and2_1ou@2:GND)	subckt_current
	289	Ix(and2_1ou@2:VDD)	subckt_current
	290	Ix(and2_1ou@2:Y)	subckt_current
	291	Ix(and2_1ou@3:A)	subckt_current
	292	Ix(and2_1ou@3:B)	subckt_current
	293	Ix(and2_1ou@3:GND)	subckt_current
	294	Ix(and2_1ou@3:VDD)	subckt_current
	295	Ix(and2_1ou@3:Y)	subckt_current
	296	Ix(and2_1ou@6:A)	subckt_current
	297	Ix(and2_1ou@6:B)	subckt_current
	298	Ix(and2_1ou@6:GND)	subckt_current
	299	Ix(and2_1ou@6:VDD)	subckt_current
	300	Ix(and2_1ou@6:Y)	subckt_current
	301	Ix(and2_1ou@7:A)	subckt_current
	302	Ix(and2_1ou@7:B)	subckt_current
	303	Ix(and2_1ou@7:GND)	subckt_current
	304	Ix(and2_1ou@7:VDD)	subckt_current
	305	Ix(and2_1ou@7:Y)	subckt_current
	306	Ix(and2_1ou@9:A)	subckt_current
	307	Ix(and2_1ou@9:B)	subckt_current
	308	Ix(and2_1ou@9:GND)	subckt_current
	309	Ix(and2_1ou@9:VDD)	subckt_current
	310	Ix(and2_1ou@9:Y)	subckt_current
	311	Ix(and2_1ou@10:A)	subckt_current
	312	Ix(and2_1ou@10:B)	subckt_current
	313	Ix(and2_1ou@10:GND)	subckt_current
	314	Ix(and2_1ou@10:VDD)	subckt_current
	315	Ix(and2_1ou@10:Y)	subckt_current
	316	Ix(and2_1ou@11:A)	subckt_current
	317	Ix(and2_1ou@11:B)	subckt_current
	318	Ix(and2_1ou@11:GND)	subckt_current
	319	Ix(and2_1ou@11:VDD)	subckt_current
	320	Ix(and2_1ou@11:Y)	subckt_current
	321	Ix(and2_1ou@12:A)	subckt_current
	322	Ix(and2_1ou@12:B)	subckt_current
	323	Ix(and2_1ou@12:GND)	subckt_current
	324	Ix(and2_1ou@12:VDD)	subckt_current
	325	Ix(and2_1ou@12:Y)	subckt_current
	326	Ix(and2_1ou@13:A)	subckt_current
	327	Ix(and2_1ou@13:B)	subckt_current
	328	Ix(and2_1ou@13:GND)	subckt_current
	329	Ix(and2_1ou@13:VDD)	subckt_current
	330	Ix(and2_1ou@13:Y)	subckt_current
	331	Ix(and2_1ou@14:A)	subckt_current
	332	Ix(and2_1ou@14:B)	subckt_current
	333	Ix(and2_1ou@14:GND)	subckt_current
	334	Ix(and2_1ou@14:VDD)	subckt_current
	335	Ix(and2_1ou@14:Y)	subckt_current
	336	Ix(and2_1ou@21:A)	subckt_current
	337	Ix(and2_1ou@21:B)	subckt_current
	338	Ix(and2_1ou@21:GND)	subckt_current
	339	Ix(and2_1ou@21:VDD)	subckt_current
	340	Ix(and2_1ou@21:Y)	subckt_current
	341	Ix(and2_1ou@22:A)	subckt_current
	342	Ix(and2_1ou@22:B)	subckt_current
	343	Ix(and2_1ou@22:GND)	subckt_current
	344	Ix(and2_1ou@22:VDD)	subckt_current
	345	Ix(and2_1ou@22:Y)	subckt_current
	346	Ix(and2_1ou@23:A)	subckt_current
	347	Ix(and2_1ou@23:B)	subckt_current
	348	Ix(and2_1ou@23:GND)	subckt_current
	349	Ix(and2_1ou@23:VDD)	subckt_current
	350	Ix(and2_1ou@23:Y)	subckt_current
	351	Ix(and2_1ou@24:A)	subckt_current
	352	Ix(and2_1ou@24:B)	subckt_current
	353	Ix(and2_1ou@24:GND)	subckt_current
	354	Ix(and2_1ou@24:VDD)	subckt_current
	355	Ix(and2_1ou@24:Y)	subckt_current
	356	Ix(and2_1ou@25:A)	subckt_current
	357	Ix(and2_1ou@25:B)	subckt_current
	358	Ix(and2_1ou@25:GND)	subckt_current
	359	Ix(and2_1ou@25:VDD)	subckt_current
	360	Ix(and2_1ou@25:Y)	subckt_current
	361	Ix(and2_2ou@0:A)	subckt_current
	362	Ix(and2_2ou@0:B)	subckt_current
	363	Ix(and2_2ou@0:GND)	subckt_current
	364	Ix(and2_2ou@0:VDD)	subckt_current
	365	Ix(and2_2ou@0:Y)	subckt_current
	366	Ix(and2_2ou@0:Y_BAR)	subckt_current
	367	Ix(and2_2ou@1:A)	subckt_current
	368	Ix(and2_2ou@1:B)	subckt_current
	369	Ix(and2_2ou@1:GND)	subckt_current
	370	Ix(and2_2ou@1:VDD)	subckt_current
	371	Ix(and2_2ou@1:Y)	subckt_current
	372	Ix(and2_2ou@1:Y_BAR)	subckt_current
	373	Ix(and2_2ou@2:A)	subckt_current
	374	Ix(and2_2ou@2:B)	subckt_current
	375	Ix(and2_2ou@2:GND)	subckt_current
	376	Ix(and2_2ou@2:VDD)	subckt_current
	377	Ix(and2_2ou@2:Y)	subckt_current
	378	Ix(and2_2ou@2:Y_BAR)	subckt_current
	379	Ix(and2_2ou@3:A)	subckt_current
	380	Ix(and2_2ou@3:B)	subckt_current
	381	Ix(and2_2ou@3:GND)	subckt_current
	382	Ix(and2_2ou@3:VDD)	subckt_current
	383	Ix(and2_2ou@3:Y)	subckt_current
	384	Ix(and2_2ou@3:Y_BAR)	subckt_current
	385	Ix(and2_2ou@6:A)	subckt_current
	386	Ix(and2_2ou@6:B)	subckt_current
	387	Ix(and2_2ou@6:GND)	subckt_current
	388	Ix(and2_2ou@6:VDD)	subckt_current
	389	Ix(and2_2ou@6:Y)	subckt_current
	390	Ix(and2_2ou@6:Y_BAR)	subckt_current
	391	Ix(and2_2ou@7:A)	subckt_current
	392	Ix(and2_2ou@7:B)	subckt_current
	393	Ix(and2_2ou@7:GND)	subckt_current
	394	Ix(and2_2ou@7:VDD)	subckt_current
	395	Ix(and2_2ou@7:Y)	subckt_current
	396	Ix(and2_2ou@7:Y_BAR)	subckt_current
	397	Ix(and2_2ou@9:A)	subckt_current
	398	Ix(and2_2ou@9:B)	subckt_current
	399	Ix(and2_2ou@9:GND)	subckt_current
	400	Ix(and2_2ou@9:VDD)	subckt_current
	401	Ix(and2_2ou@9:Y)	subckt_current
	402	Ix(and2_2ou@9:Y_BAR)	subckt_current
	403	Ix(inverter@0:GND)	subckt_current
	404	Ix(inverter@0:IN)	subckt_current
	405	Ix(inverter@0:OUT)	subckt_current
	406	Ix(inverter@0:VDD)	subckt_current
	407	Ix(inverter@2:GND)	subckt_current
	408	Ix(inverter@2:IN)	subckt_current
	409	Ix(inverter@2:OUT)	subckt_current
	410	Ix(inverter@2:VDD)	subckt_current
	411	Ix(inverter@3:GND)	subckt_current
	412	Ix(inverter@3:IN)	subckt_current
	413	Ix(inverter@3:OUT)	subckt_current
	414	Ix(inverter@3:VDD)	subckt_current
	415	Ix(inverter@4:GND)	subckt_current
	416	Ix(inverter@4:IN)	subckt_current
	417	Ix(inverter@4:OUT)	subckt_current
	418	Ix(inverter@4:VDD)	subckt_current
	419	Ix(inverter@6:GND)	subckt_current
	420	Ix(inverter@6:IN)	subckt_current
	421	Ix(inverter@6:OUT)	subckt_current
	422	Ix(inverter@6:VDD)	subckt_current
	423	Ix(inverter@7:GND)	subckt_current
	424	Ix(inverter@7:IN)	subckt_current
	425	Ix(inverter@7:OUT)	subckt_current
	426	Ix(inverter@7:VDD)	subckt_current
	427	Ix(inverter@8:GND)	subckt_current
	428	Ix(inverter@8:IN)	subckt_current
	429	Ix(inverter@8:OUT)	subckt_current
	430	Ix(inverter@8:VDD)	subckt_current
	431	Ix(inverter@9:GND)	subckt_current
	432	Ix(inverter@9:IN)	subckt_current
	433	Ix(inverter@9:OUT)	subckt_current
	434	Ix(inverter@9:VDD)	subckt_current
	435	Ix(inverter@10:GND)	subckt_current
	436	Ix(inverter@10:IN)	subckt_current
	437	Ix(inverter@10:OUT)	subckt_current
	438	Ix(inverter@10:VDD)	subckt_current
	439	Ix(inverter@11:GND)	subckt_current
	440	Ix(inverter@11:IN)	subckt_current
	441	Ix(inverter@11:OUT)	subckt_current
	442	Ix(inverter@11:VDD)	subckt_current
	443	Ix(inverter@12:GND)	subckt_current
	444	Ix(inverter@12:IN)	subckt_current
	445	Ix(inverter@12:OUT)	subckt_current
	446	Ix(inverter@12:VDD)	subckt_current
	447	Ix(inverter@13:GND)	subckt_current
	448	Ix(inverter@13:IN)	subckt_current
	449	Ix(inverter@13:OUT)	subckt_current
	450	Ix(inverter@13:VDD)	subckt_current
	451	Ix(inverter@14:GND)	subckt_current
	452	Ix(inverter@14:IN)	subckt_current
	453	Ix(inverter@14:OUT)	subckt_current
	454	Ix(inverter@14:VDD)	subckt_current
	455	Ix(inverter@15:GND)	subckt_current
	456	Ix(inverter@15:IN)	subckt_current
	457	Ix(inverter@15:OUT)	subckt_current
	458	Ix(inverter@15:VDD)	subckt_current
	459	Ix(inverter@16:GND)	subckt_current
	460	Ix(inverter@16:IN)	subckt_current
	461	Ix(inverter@16:OUT)	subckt_current
	462	Ix(inverter@16:VDD)	subckt_current
	463	Ix(inverter@17:GND)	subckt_current
	464	Ix(inverter@17:IN)	subckt_current
	465	Ix(inverter@17:OUT)	subckt_current
	466	Ix(inverter@17:VDD)	subckt_current
	467	Ix(inverter@18:GND)	subckt_current
	468	Ix(inverter@18:IN)	subckt_current
	469	Ix(inverter@18:OUT)	subckt_current
	470	Ix(inverter@18:VDD)	subckt_current
	471	Ix(inverter@19:GND)	subckt_current
	472	Ix(inverter@19:IN)	subckt_current
	473	Ix(inverter@19:OUT)	subckt_current
	474	Ix(inverter@19:VDD)	subckt_current
	475	Ix(inverter@20:GND)	subckt_current
	476	Ix(inverter@20:IN)	subckt_current
	477	Ix(inverter@20:OUT)	subckt_current
	478	Ix(inverter@20:VDD)	subckt_current
	479	Ix(inverter@21:GND)	subckt_current
	480	Ix(inverter@21:IN)	subckt_current
	481	Ix(inverter@21:OUT)	subckt_current
	482	Ix(inverter@21:VDD)	subckt_current
	483	Ix(inverter@22:GND)	subckt_current
	484	Ix(inverter@22:IN)	subckt_current
	485	Ix(inverter@22:OUT)	subckt_current
	486	Ix(inverter@22:VDD)	subckt_current
	487	Ix(inverter@23:GND)	subckt_current
	488	Ix(inverter@23:IN)	subckt_current
	489	Ix(inverter@23:OUT)	subckt_current
	490	Ix(inverter@23:VDD)	subckt_current
	491	Ix(inverter@24:GND)	subckt_current
	492	Ix(inverter@24:IN)	subckt_current
	493	Ix(inverter@24:OUT)	subckt_current
	494	Ix(inverter@24:VDD)	subckt_current
	495	Ix(inverter@25:GND)	subckt_current
	496	Ix(inverter@25:IN)	subckt_current
	497	Ix(inverter@25:OUT)	subckt_current
	498	Ix(inverter@25:VDD)	subckt_current
	499	Ix(inverter@38:GND)	subckt_current
	500	Ix(inverter@38:IN)	subckt_current
	501	Ix(inverter@38:OUT)	subckt_current
	502	Ix(inverter@38:VDD)	subckt_current
	503	Ix(inverter@39:GND)	subckt_current
	504	Ix(inverter@39:IN)	subckt_current
	505	Ix(inverter@39:OUT)	subckt_current
	506	Ix(inverter@39:VDD)	subckt_current
	507	Ix(inverter@40:GND)	subckt_current
	508	Ix(inverter@40:IN)	subckt_current
	509	Ix(inverter@40:OUT)	subckt_current
	510	Ix(inverter@40:VDD)	subckt_current
	511	Ix(inverter@41:GND)	subckt_current
	512	Ix(inverter@41:IN)	subckt_current
	513	Ix(inverter@41:OUT)	subckt_current
	514	Ix(inverter@41:VDD)	subckt_current
	515	Ix(inverter@42:GND)	subckt_current
	516	Ix(inverter@42:IN)	subckt_current
	517	Ix(inverter@42:OUT)	subckt_current
	518	Ix(inverter@42:VDD)	subckt_current
	519	Ix(inverter@43:GND)	subckt_current
	520	Ix(inverter@43:IN)	subckt_current
	521	Ix(inverter@43:OUT)	subckt_current
	522	Ix(inverter@43:VDD)	subckt_current
	523	Ix(inverter@44:GND)	subckt_current
	524	Ix(inverter@44:IN)	subckt_current
	525	Ix(inverter@44:OUT)	subckt_current
	526	Ix(inverter@44:VDD)	subckt_current
	527	Ix(inverter@45:GND)	subckt_current
	528	Ix(inverter@45:IN)	subckt_current
	529	Ix(inverter@45:OUT)	subckt_current
	530	Ix(inverter@45:VDD)	subckt_current
	531	Ix(inverter@46:GND)	subckt_current
	532	Ix(inverter@46:IN)	subckt_current
	533	Ix(inverter@46:OUT)	subckt_current
	534	Ix(inverter@46:VDD)	subckt_current
	535	Ix(inverter@47:GND)	subckt_current
	536	Ix(inverter@47:IN)	subckt_current
	537	Ix(inverter@47:OUT)	subckt_current
	538	Ix(inverter@47:VDD)	subckt_current
	539	Ix(inverter@48:GND)	subckt_current
	540	Ix(inverter@48:IN)	subckt_current
	541	Ix(inverter@48:OUT)	subckt_current
	542	Ix(inverter@48:VDD)	subckt_current
	543	Ix(inverter@49:GND)	subckt_current
	544	Ix(inverter@49:IN)	subckt_current
	545	Ix(inverter@49:OUT)	subckt_current
	546	Ix(inverter@49:VDD)	subckt_current
	547	Ix(inverter@56:GND)	subckt_current
	548	Ix(inverter@56:IN)	subckt_current
	549	Ix(inverter@56:OUT)	subckt_current
	550	Ix(inverter@56:VDD)	subckt_current
	551	Ix(inverter@57:GND)	subckt_current
	552	Ix(inverter@57:IN)	subckt_current
	553	Ix(inverter@57:OUT)	subckt_current
	554	Ix(inverter@57:VDD)	subckt_current
	555	Ix(inverter@58:GND)	subckt_current
	556	Ix(inverter@58:IN)	subckt_current
	557	Ix(inverter@58:OUT)	subckt_current
	558	Ix(inverter@58:VDD)	subckt_current
	559	Ix(inverter@59:GND)	subckt_current
	560	Ix(inverter@59:IN)	subckt_current
	561	Ix(inverter@59:OUT)	subckt_current
	562	Ix(inverter@59:VDD)	subckt_current
	563	Ix(inverter@60:GND)	subckt_current
	564	Ix(inverter@60:IN)	subckt_current
	565	Ix(inverter@60:OUT)	subckt_current
	566	Ix(inverter@60:VDD)	subckt_current
	567	Ix(inverter@61:GND)	subckt_current
	568	Ix(inverter@61:IN)	subckt_current
	569	Ix(inverter@61:OUT)	subckt_current
	570	Ix(inverter@61:VDD)	subckt_current
	571	Ix(multipli@0:CIN)	subckt_current
	572	Ix(multipli@0:CIN_BAR)	subckt_current
	573	Ix(multipli@0:COUT)	subckt_current
	574	Ix(multipli@0:COUT_BAR)	subckt_current
	575	Ix(multipli@0:GND)	subckt_current
	576	Ix(multipli@0:INA)	subckt_current
	577	Ix(multipli@0:INB)	subckt_current
	578	Ix(multipli@0:INFULL)	subckt_current
	579	Ix(multipli@0:INFULL_BAR)	subckt_current
	580	Ix(multipli@0:SUM)	subckt_current
	581	Ix(multipli@0:VDD)	subckt_current
	582	Ix(multipli@2:CIN)	subckt_current
	583	Ix(multipli@2:CIN_BAR)	subckt_current
	584	Ix(multipli@2:COUT)	subckt_current
	585	Ix(multipli@2:COUT_BAR)	subckt_current
	586	Ix(multipli@2:GND)	subckt_current
	587	Ix(multipli@2:INA)	subckt_current
	588	Ix(multipli@2:INB)	subckt_current
	589	Ix(multipli@2:INFULL)	subckt_current
	590	Ix(multipli@2:INFULL_BAR)	subckt_current
	591	Ix(multipli@2:SUM)	subckt_current
	592	Ix(multipli@2:VDD)	subckt_current
	593	Ix(multipli@3:CIN)	subckt_current
	594	Ix(multipli@3:CIN_BAR)	subckt_current
	595	Ix(multipli@3:COUT)	subckt_current
	596	Ix(multipli@3:COUT_BAR)	subckt_current
	597	Ix(multipli@3:GND)	subckt_current
	598	Ix(multipli@3:INA)	subckt_current
	599	Ix(multipli@3:INB)	subckt_current
	600	Ix(multipli@3:INFULL)	subckt_current
	601	Ix(multipli@3:INFULL_BAR)	subckt_current
	602	Ix(multipli@3:SUM)	subckt_current
	603	Ix(multipli@3:VDD)	subckt_current
	604	Ix(multipli@4:CIN)	subckt_current
	605	Ix(multipli@4:CIN_BAR)	subckt_current
	606	Ix(multipli@4:COUT)	subckt_current
	607	Ix(multipli@4:COUT_BAR)	subckt_current
	608	Ix(multipli@4:GND)	subckt_current
	609	Ix(multipli@4:INA)	subckt_current
	610	Ix(multipli@4:INB)	subckt_current
	611	Ix(multipli@4:INFULL)	subckt_current
	612	Ix(multipli@4:INFULL_BAR)	subckt_current
	613	Ix(multipli@4:SUM)	subckt_current
	614	Ix(multipli@4:VDD)	subckt_current
	615	Ix(multipli@5:CIN)	subckt_current
	616	Ix(multipli@5:CIN_BAR)	subckt_current
	617	Ix(multipli@5:COUT)	subckt_current
	618	Ix(multipli@5:COUT_BAR)	subckt_current
	619	Ix(multipli@5:GND)	subckt_current
	620	Ix(multipli@5:INA)	subckt_current
	621	Ix(multipli@5:INB)	subckt_current
	622	Ix(multipli@5:INFULL)	subckt_current
	623	Ix(multipli@5:INFULL_BAR)	subckt_current
	624	Ix(multipli@5:SUM)	subckt_current
	625	Ix(multipli@5:VDD)	subckt_current
	626	Ix(multipli@8:CIN)	subckt_current
	627	Ix(multipli@8:CIN_BAR)	subckt_current
	628	Ix(multipli@8:COUT)	subckt_current
	629	Ix(multipli@8:COUT_BAR)	subckt_current
	630	Ix(multipli@8:GND)	subckt_current
	631	Ix(multipli@8:INA)	subckt_current
	632	Ix(multipli@8:INB)	subckt_current
	633	Ix(multipli@8:INFULL)	subckt_current
	634	Ix(multipli@8:INFULL_BAR)	subckt_current
	635	Ix(multipli@8:SUM)	subckt_current
	636	Ix(multipli@8:VDD)	subckt_current
	637	Ix(multipli@9:CIN)	subckt_current
	638	Ix(multipli@9:CIN_BAR)	subckt_current
	639	Ix(multipli@9:COUT)	subckt_current
	640	Ix(multipli@9:COUT_BAR)	subckt_current
	641	Ix(multipli@9:GND)	subckt_current
	642	Ix(multipli@9:INA)	subckt_current
	643	Ix(multipli@9:INB)	subckt_current
	644	Ix(multipli@9:INFULL)	subckt_current
	645	Ix(multipli@9:INFULL_BAR)	subckt_current
	646	Ix(multipli@9:SUM)	subckt_current
	647	Ix(multipli@9:VDD)	subckt_current
	648	Ix(multipli@10:CIN)	subckt_current
	649	Ix(multipli@10:CIN_BAR)	subckt_current
	650	Ix(multipli@10:COUT)	subckt_current
	651	Ix(multipli@10:COUT_BAR)	subckt_current
	652	Ix(multipli@10:GND)	subckt_current
	653	Ix(multipli@10:INA)	subckt_current
	654	Ix(multipli@10:INB)	subckt_current
	655	Ix(multipli@10:INFULL)	subckt_current
	656	Ix(multipli@10:INFULL_BAR)	subckt_current
	657	Ix(multipli@10:SUM)	subckt_current
	658	Ix(multipli@10:VDD)	subckt_current
	659	Ix(multipli@11:CIN)	subckt_current
	660	Ix(multipli@11:CIN_BAR)	subckt_current
	661	Ix(multipli@11:COUT)	subckt_current
	662	Ix(multipli@11:COUT_BAR)	subckt_current
	663	Ix(multipli@11:GND)	subckt_current
	664	Ix(multipli@11:INA)	subckt_current
	665	Ix(multipli@11:INB)	subckt_current
	666	Ix(multipli@11:INFULL)	subckt_current
	667	Ix(multipli@11:INFULL_BAR)	subckt_current
	668	Ix(multipli@11:SUM)	subckt_current
	669	Ix(multipli@11:VDD)	subckt_current
	670	Ix(multipli@12:CIN)	subckt_current
	671	Ix(multipli@12:CIN_BAR)	subckt_current
	672	Ix(multipli@12:COUT)	subckt_current
	673	Ix(multipli@12:COUT_BAR)	subckt_current
	674	Ix(multipli@12:GND)	subckt_current
	675	Ix(multipli@12:INA)	subckt_current
	676	Ix(multipli@12:INB)	subckt_current
	677	Ix(multipli@12:INFULL)	subckt_current
	678	Ix(multipli@12:INFULL_BAR)	subckt_current
	679	Ix(multipli@12:SUM)	subckt_current
	680	Ix(multipli@12:VDD)	subckt_current
	681	Ix(multipli@13:CIN)	subckt_current
	682	Ix(multipli@13:CIN_BAR)	subckt_current
	683	Ix(multipli@13:COUT)	subckt_current
	684	Ix(multipli@13:COUT_BAR)	subckt_current
	685	Ix(multipli@13:GND)	subckt_current
	686	Ix(multipli@13:INA)	subckt_current
	687	Ix(multipli@13:INB)	subckt_current
	688	Ix(multipli@13:INFULL)	subckt_current
	689	Ix(multipli@13:INFULL_BAR)	subckt_current
	690	Ix(multipli@13:SUM)	subckt_current
	691	Ix(multipli@13:VDD)	subckt_current
	692	Ix(multipli@14:CIN)	subckt_current
	693	Ix(multipli@14:CIN_BAR)	subckt_current
	694	Ix(multipli@14:COUT)	subckt_current
	695	Ix(multipli@14:COUT_BAR)	subckt_current
	696	Ix(multipli@14:GND)	subckt_current
	697	Ix(multipli@14:INA)	subckt_current
	698	Ix(multipli@14:INB)	subckt_current
	699	Ix(multipli@14:INFULL)	subckt_current
	700	Ix(multipli@14:INFULL_BAR)	subckt_current
	701	Ix(multipli@14:SUM)	subckt_current
	702	Ix(multipli@14:VDD)	subckt_current
	703	Ix(multipli@15:CIN)	subckt_current
	704	Ix(multipli@15:CIN_BAR)	subckt_current
	705	Ix(multipli@15:COUT)	subckt_current
	706	Ix(multipli@15:COUT_BAR)	subckt_current
	707	Ix(multipli@15:GND)	subckt_current
	708	Ix(multipli@15:INA)	subckt_current
	709	Ix(multipli@15:INB)	subckt_current
	710	Ix(multipli@15:INFULL)	subckt_current
	711	Ix(multipli@15:INFULL_BAR)	subckt_current
	712	Ix(multipli@15:SUM)	subckt_current
	713	Ix(multipli@15:VDD)	subckt_current
	714	Ix(multipli@16:CIN)	subckt_current
	715	Ix(multipli@16:CIN_BAR)	subckt_current
	716	Ix(multipli@16:COUT)	subckt_current
	717	Ix(multipli@16:COUT_BAR)	subckt_current
	718	Ix(multipli@16:GND)	subckt_current
	719	Ix(multipli@16:INA)	subckt_current
	720	Ix(multipli@16:INB)	subckt_current
	721	Ix(multipli@16:INFULL)	subckt_current
	722	Ix(multipli@16:INFULL_BAR)	subckt_current
	723	Ix(multipli@16:SUM)	subckt_current
	724	Ix(multipli@16:VDD)	subckt_current
	725	Ix(multipli@17:CIN)	subckt_current
	726	Ix(multipli@17:CIN_BAR)	subckt_current
	727	Ix(multipli@17:COUT)	subckt_current
	728	Ix(multipli@17:COUT_BAR)	subckt_current
	729	Ix(multipli@17:GND)	subckt_current
	730	Ix(multipli@17:INA)	subckt_current
	731	Ix(multipli@17:INB)	subckt_current
	732	Ix(multipli@17:INFULL)	subckt_current
	733	Ix(multipli@17:INFULL_BAR)	subckt_current
	734	Ix(multipli@17:SUM)	subckt_current
	735	Ix(multipli@17:VDD)	subckt_current
	736	Ix(multipli@18:CIN)	subckt_current
	737	Ix(multipli@18:CIN_BAR)	subckt_current
	738	Ix(multipli@18:COUT)	subckt_current
	739	Ix(multipli@18:COUT_BAR)	subckt_current
	740	Ix(multipli@18:GND)	subckt_current
	741	Ix(multipli@18:INA)	subckt_current
	742	Ix(multipli@18:INB)	subckt_current
	743	Ix(multipli@18:INFULL)	subckt_current
	744	Ix(multipli@18:INFULL_BAR)	subckt_current
	745	Ix(multipli@18:SUM)	subckt_current
	746	Ix(multipli@18:VDD)	subckt_current
	747	Ix(multipli@19:CIN)	subckt_current
	748	Ix(multipli@19:CIN_BAR)	subckt_current
	749	Ix(multipli@19:COUT)	subckt_current
	750	Ix(multipli@19:COUT_BAR)	subckt_current
	751	Ix(multipli@19:GND)	subckt_current
	752	Ix(multipli@19:INA)	subckt_current
	753	Ix(multipli@19:INB)	subckt_current
	754	Ix(multipli@19:INFULL)	subckt_current
	755	Ix(multipli@19:INFULL_BAR)	subckt_current
	756	Ix(multipli@19:SUM)	subckt_current
	757	Ix(multipli@19:VDD)	subckt_current
	758	Ix(multipli@20:CIN)	subckt_current
	759	Ix(multipli@20:CIN_BAR)	subckt_current
	760	Ix(multipli@20:COUT)	subckt_current
	761	Ix(multipli@20:COUT_BAR)	subckt_current
	762	Ix(multipli@20:GND)	subckt_current
	763	Ix(multipli@20:INA)	subckt_current
	764	Ix(multipli@20:INB)	subckt_current
	765	Ix(multipli@20:INFULL)	subckt_current
	766	Ix(multipli@20:INFULL_BAR)	subckt_current
	767	Ix(multipli@20:SUM)	subckt_current
	768	Ix(multipli@20:VDD)	subckt_current
	769	Ix(multipli@21:CIN)	subckt_current
	770	Ix(multipli@21:CIN_BAR)	subckt_current
	771	Ix(multipli@21:COUT)	subckt_current
	772	Ix(multipli@21:COUT_BAR)	subckt_current
	773	Ix(multipli@21:GND)	subckt_current
	774	Ix(multipli@21:INA)	subckt_current
	775	Ix(multipli@21:INB)	subckt_current
	776	Ix(multipli@21:INFULL)	subckt_current
	777	Ix(multipli@21:INFULL_BAR)	subckt_current
	778	Ix(multipli@21:SUM)	subckt_current
	779	Ix(multipli@21:VDD)	subckt_current
	780	Ix(multipli@22:CIN)	subckt_current
	781	Ix(multipli@22:CIN_BAR)	subckt_current
	782	Ix(multipli@22:COUT)	subckt_current
	783	Ix(multipli@22:COUT_BAR)	subckt_current
	784	Ix(multipli@22:GND)	subckt_current
	785	Ix(multipli@22:INA)	subckt_current
	786	Ix(multipli@22:INB)	subckt_current
	787	Ix(multipli@22:INFULL)	subckt_current
	788	Ix(multipli@22:INFULL_BAR)	subckt_current
	789	Ix(multipli@22:SUM)	subckt_current
	790	Ix(multipli@22:VDD)	subckt_current
	791	Ix(multipli@23:CIN)	subckt_current
	792	Ix(multipli@23:CIN_BAR)	subckt_current
	793	Ix(multipli@23:COUT)	subckt_current
	794	Ix(multipli@23:COUT_BAR)	subckt_current
	795	Ix(multipli@23:GND)	subckt_current
	796	Ix(multipli@23:INA)	subckt_current
	797	Ix(multipli@23:INB)	subckt_current
	798	Ix(multipli@23:INFULL)	subckt_current
	799	Ix(multipli@23:INFULL_BAR)	subckt_current
	800	Ix(multipli@23:SUM)	subckt_current
	801	Ix(multipli@23:VDD)	subckt_current
	802	Ix(multipli@24:CIN)	subckt_current
	803	Ix(multipli@24:CIN_BAR)	subckt_current
	804	Ix(multipli@24:COUT)	subckt_current
	805	Ix(multipli@24:COUT_BAR)	subckt_current
	806	Ix(multipli@24:GND)	subckt_current
	807	Ix(multipli@24:INA)	subckt_current
	808	Ix(multipli@24:INB)	subckt_current
	809	Ix(multipli@24:INFULL)	subckt_current
	810	Ix(multipli@24:INFULL_BAR)	subckt_current
	811	Ix(multipli@24:SUM)	subckt_current
	812	Ix(multipli@24:VDD)	subckt_current
	813	Ix(multipli@25:CIN)	subckt_current
	814	Ix(multipli@25:CIN_BAR)	subckt_current
	815	Ix(multipli@25:COUT)	subckt_current
	816	Ix(multipli@25:COUT_BAR)	subckt_current
	817	Ix(multipli@25:GND)	subckt_current
	818	Ix(multipli@25:INA)	subckt_current
	819	Ix(multipli@25:INB)	subckt_current
	820	Ix(multipli@25:INFULL)	subckt_current
	821	Ix(multipli@25:INFULL_BAR)	subckt_current
	822	Ix(multipli@25:SUM)	subckt_current
	823	Ix(multipli@25:VDD)	subckt_current
	824	Ix(multipli@26:CIN)	subckt_current
	825	Ix(multipli@26:CIN_BAR)	subckt_current
	826	Ix(multipli@26:COUT)	subckt_current
	827	Ix(multipli@26:COUT_BAR)	subckt_current
	828	Ix(multipli@26:GND)	subckt_current
	829	Ix(multipli@26:INA)	subckt_current
	830	Ix(multipli@26:INB)	subckt_current
	831	Ix(multipli@26:INFULL)	subckt_current
	832	Ix(multipli@26:INFULL_BAR)	subckt_current
	833	Ix(multipli@26:SUM)	subckt_current
	834	Ix(multipli@26:VDD)	subckt_current
	835	Ix(multipli@27:CIN)	subckt_current
	836	Ix(multipli@27:CIN_BAR)	subckt_current
	837	Ix(multipli@27:COUT)	subckt_current
	838	Ix(multipli@27:COUT_BAR)	subckt_current
	839	Ix(multipli@27:GND)	subckt_current
	840	Ix(multipli@27:INA)	subckt_current
	841	Ix(multipli@27:INB)	subckt_current
	842	Ix(multipli@27:INFULL)	subckt_current
	843	Ix(multipli@27:INFULL_BAR)	subckt_current
	844	Ix(multipli@27:SUM)	subckt_current
	845	Ix(multipli@27:VDD)	subckt_current
	846	Ix(multipli@28:CIN)	subckt_current
	847	Ix(multipli@28:CIN_BAR)	subckt_current
	848	Ix(multipli@28:COUT)	subckt_current
	849	Ix(multipli@28:COUT_BAR)	subckt_current